<?xml version="1.0" encoding="UTF-8"?>

<!-- generated on Tue Feb 27 15:31:24 2018 by SUMO Version 0.25.0
<?xml version="1.0" encoding="UTF-8"?>

<configuration xmlns:xsi="http://www.w3.org/2001/XMLSchema-instance" xsi:noNamespaceSchemaLocation="http://sumo.dlr.de/xsd/sumoConfiguration.xsd">

    <input>
        <net-file value="roadsetup/grid.net.xml"/>
        <route-files value="roadsetup/grid.rou.xml"/>
        <additional-files value="roadsetup/grid.add.xml"/>
    </input>

    <time>
        <begin value="0"/>
        <end value="1000"/>
        <step-length value="0.1"/>
    </time>

    <processing>
        <max-num-vehicles value="400"/>
    </processing>

    <traci_server>
        <remote-port value="9999"/>
    </traci_server>

    <random_number>
        <seed value="0"/>
    </random_number>

</configuration>
-->

<meandata xmlns:xsi="http://www.w3.org/2001/XMLSchema-instance" xsi:noNamespaceSchemaLocation="http://sumo.dlr.de/xsd/meandata_file.xsd">
    <interval begin="100.00" end="300.10" id="0">
        <edge id="0/0to0/1" sampledSeconds="941.49" traveltime="66.62" density="5.99" occupancy="1.50" waitingTime="0.00" speed="11.79" departed="4" arrived="1" entered="7" left="15" laneChangedFrom="0" laneChangedTo="0"/>
        <edge id="0/0to1/0" sampledSeconds="815.03" traveltime="68.03" density="5.19" occupancy="1.30" waitingTime="0.00" speed="11.55" departed="3" arrived="1" entered="5" left="13" laneChangedFrom="6" laneChangedTo="6"/>
        <edge id="0/1to0/0" sampledSeconds="341.97" traveltime="66.50" density="2.18" occupancy="0.54" waitingTime="0.00" speed="11.81" departed="1" arrived="0" entered="4" left="5" laneChangedFrom="3" laneChangedTo="3"/>
        <edge id="0/1to0/2" sampledSeconds="1255.17" traveltime="66.23" density="8.00" occupancy="2.00" waitingTime="0.00" speed="11.84" departed="1" arrived="0" entered="17" left="19" laneChangedFrom="0" laneChangedTo="0"/>
        <edge id="0/1to1/1" sampledSeconds="2670.16" traveltime="82.94" density="17.02" occupancy="4.26" waitingTime="366.20" speed="9.45" departed="4" arrived="2" entered="28" left="23" laneChangedFrom="23" laneChangedTo="23"/>
        <edge id="0/2to0/1" sampledSeconds="1764.66" traveltime="67.29" density="11.25" occupancy="2.81" waitingTime="0.00" speed="11.65" departed="1" arrived="1" entered="28" left="20" laneChangedFrom="13" laneChangedTo="13"/>
        <edge id="0/2to0/3" sampledSeconds="384.70" traveltime="66.65" density="2.45" occupancy="0.61" waitingTime="0.00" speed="11.78" departed="1" arrived="1" entered="3" left="5" laneChangedFrom="0" laneChangedTo="0"/>
        <edge id="0/2to1/2" sampledSeconds="2685.86" traveltime="86.37" density="17.12" occupancy="4.28" waitingTime="471.60" speed="9.08" departed="3" arrived="3" entered="21" left="23" laneChangedFrom="13" laneChangedTo="13"/>
        <edge id="0/3to0/2" sampledSeconds="937.00" traveltime="66.75" density="5.96" occupancy="1.49" waitingTime="0.00" speed="11.77" departed="3" arrived="1" entered="9" left="14" laneChangedFrom="3" laneChangedTo="3"/>
        <edge id="0/3to1/3" sampledSeconds="712.70" traveltime="66.35" density="4.53" occupancy="1.13" waitingTime="0.00" speed="11.84" departed="2" arrived="0" entered="5" left="16" laneChangedFrom="0" laneChangedTo="0"/>
        <edge id="1/0to0/0" sampledSeconds="564.55" traveltime="67.29" density="3.59" occupancy="0.90" waitingTime="0.00" speed="11.67" departed="3" arrived="2" entered="7" left="7" laneChangedFrom="0" laneChangedTo="0"/>
        <edge id="1/0to1/1" sampledSeconds="3346.90" traveltime="88.15" density="21.34" occupancy="5.33" waitingTime="599.00" speed="8.89" departed="2" arrived="1" entered="36" left="35" laneChangedFrom="18" laneChangedTo="18"/>
        <edge id="1/0to2/0" sampledSeconds="1767.38" traveltime="68.17" density="11.27" occupancy="2.82" waitingTime="0.00" speed="11.50" departed="6" arrived="4" entered="19" left="22" laneChangedFrom="10" laneChangedTo="10"/>
        <edge id="1/1to0/1" sampledSeconds="1244.30" traveltime="70.86" density="7.93" occupancy="1.98" waitingTime="32.30" speed="11.06" departed="2" arrived="1" entered="15" left="14" laneChangedFrom="10" laneChangedTo="10"/>
        <edge id="1/1to1/0" sampledSeconds="1946.99" traveltime="69.39" density="12.41" occupancy="3.10" waitingTime="10.40" speed="11.30" departed="7" arrived="4" entered="25" left="17" laneChangedFrom="16" laneChangedTo="16"/>
        <edge id="1/1to1/2" sampledSeconds="3298.93" traveltime="91.64" density="21.03" occupancy="5.26" waitingTime="608.80" speed="8.55" departed="1" arrived="1" entered="38" left="31" laneChangedFrom="22" laneChangedTo="22"/>
        <edge id="1/1to2/1" sampledSeconds="2484.83" traveltime="82.45" density="15.84" occupancy="3.96" waitingTime="322.90" speed="9.51" departed="6" arrived="1" entered="26" left="19" laneChangedFrom="12" laneChangedTo="12"/>
        <edge id="1/2to0/2" sampledSeconds="1696.18" traveltime="68.79" density="10.81" occupancy="2.70" waitingTime="0.00" speed="11.40" departed="2" arrived="5" entered="25" left="18" laneChangedFrom="18" laneChangedTo="18"/>
        <edge id="1/2to1/1" sampledSeconds="3172.92" traveltime="84.94" density="20.23" occupancy="5.06" waitingTime="458.30" speed="9.23" departed="4" arrived="2" entered="38" left="27" laneChangedFrom="19" laneChangedTo="19"/>
        <edge id="1/2to1/3" sampledSeconds="1452.22" traveltime="70.06" density="9.26" occupancy="2.31" waitingTime="16.00" speed="11.19" departed="4" arrived="1" entered="20" left="16" laneChangedFrom="9" laneChangedTo="9"/>
        <edge id="1/2to2/2" sampledSeconds="1451.56" traveltime="84.71" density="9.25" occupancy="2.31" waitingTime="239.90" speed="9.25" departed="2" arrived="0" entered="20" left="12" laneChangedFrom="8" laneChangedTo="8"/>
        <edge id="1/3to0/3" sampledSeconds="611.88" traveltime="66.57" density="3.89" occupancy="0.97" waitingTime="0.00" speed="11.80" departed="2" arrived="0" entered="8" left="9" laneChangedFrom="2" laneChangedTo="2"/>
        <edge id="1/3to1/2" sampledSeconds="2808.96" traveltime="82.17" density="17.91" occupancy="4.48" waitingTime="375.30" speed="9.54" departed="2" arrived="0" entered="33" left="29" laneChangedFrom="18" laneChangedTo="18"/>
        <edge id="1/3to2/3" sampledSeconds="1189.19" traveltime="66.08" density="7.58" occupancy="1.90" waitingTime="0.00" speed="11.86" departed="0" arrived="1" entered="15" left="18" laneChangedFrom="1" laneChangedTo="1"/>
        <edge id="2/0to1/0" sampledSeconds="2341.86" traveltime="66.17" density="14.93" occupancy="3.73" waitingTime="0.00" speed="11.85" departed="2" arrived="2" entered="28" left="33" laneChangedFrom="0" laneChangedTo="0"/>
        <edge id="2/0to2/1" sampledSeconds="3325.43" traveltime="88.63" density="21.20" occupancy="5.30" waitingTime="503.90" speed="8.84" departed="4" arrived="3" entered="31" left="29" laneChangedFrom="23" laneChangedTo="23"/>
        <edge id="2/0to3/0" sampledSeconds="490.60" traveltime="66.09" density="3.12" occupancy="0.78" waitingTime="0.00" speed="11.88" departed="0" arrived="1" entered="7" left="7" laneChangedFrom="4" laneChangedTo="4"/>
        <edge id="2/1to1/1" sampledSeconds="3686.74" traveltime="90.53" density="23.50" occupancy="5.88" waitingTime="695.60" speed="8.66" departed="5" arrived="2" entered="36" left="21" laneChangedFrom="22" laneChangedTo="22"/>
        <edge id="2/1to2/0" sampledSeconds="1643.95" traveltime="75.52" density="10.48" occupancy="2.62" waitingTime="84.60" speed="10.38" departed="7" arrived="0" entered="13" left="23" laneChangedFrom="7" laneChangedTo="7"/>
        <edge id="2/1to2/2" sampledSeconds="2097.17" traveltime="81.23" density="13.37" occupancy="3.34" waitingTime="250.00" speed="9.65" departed="4" arrived="2" entered="28" left="19" laneChangedFrom="9" laneChangedTo="9"/>
        <edge id="2/1to3/1" sampledSeconds="857.92" traveltime="71.54" density="5.47" occupancy="1.37" waitingTime="18.20" speed="10.96" departed="3" arrived="0" entered="11" left="11" laneChangedFrom="8" laneChangedTo="8"/>
        <edge id="2/2to1/2" sampledSeconds="2649.56" traveltime="75.72" density="16.89" occupancy="4.22" waitingTime="157.00" speed="10.35" departed="0" arrived="2" entered="36" left="21" laneChangedFrom="14" laneChangedTo="14"/>
        <edge id="2/2to2/1" sampledSeconds="2136.61" traveltime="89.26" density="13.62" occupancy="3.41" waitingTime="414.60" speed="8.78" departed="0" arrived="0" entered="24" left="22" laneChangedFrom="14" laneChangedTo="14"/>
        <edge id="2/2to2/3" sampledSeconds="973.07" traveltime="71.84" density="6.20" occupancy="1.55" waitingTime="23.20" speed="10.91" departed="3" arrived="3" entered="13" left="13" laneChangedFrom="6" laneChangedTo="6"/>
        <edge id="2/2to3/2" sampledSeconds="831.09" traveltime="68.65" density="5.30" occupancy="1.32" waitingTime="0.00" speed="11.42" departed="2" arrived="0" entered="14" left="10" laneChangedFrom="2" laneChangedTo="2"/>
        <edge id="2/3to1/3" sampledSeconds="1867.55" traveltime="67.27" density="11.91" occupancy="2.98" waitingTime="0.00" speed="11.65" departed="2" arrived="3" entered="27" left="24" laneChangedFrom="18" laneChangedTo="18"/>
        <edge id="2/3to2/2" sampledSeconds="2080.91" traveltime="82.41" density="13.27" occupancy="3.32" waitingTime="268.90" speed="9.51" departed="5" arrived="1" entered="18" left="23" laneChangedFrom="8" laneChangedTo="8"/>
        <edge id="2/3to3/3" sampledSeconds="652.78" traveltime="67.01" density="4.15" occupancy="1.04" waitingTime="0.00" speed="11.72" departed="4" arrived="1" entered="4" left="9" laneChangedFrom="0" laneChangedTo="0"/>
        <edge id="3/0to2/0" sampledSeconds="1149.18" traveltime="65.98" density="7.31" occupancy="1.83" waitingTime="0.00" speed="11.90" departed="1" arrived="1" entered="14" left="20" laneChangedFrom="0" laneChangedTo="0"/>
        <edge id="3/0to3/1" sampledSeconds="825.11" traveltime="68.32" density="5.25" occupancy="1.31" waitingTime="0.00" speed="11.50" departed="4" arrived="1" entered="7" left="13" laneChangedFrom="9" laneChangedTo="9"/>
        <edge id="3/1to2/1" sampledSeconds="1786.30" traveltime="81.68" density="11.39" occupancy="2.85" waitingTime="255.90" speed="9.60" departed="1" arrived="0" entered="20" left="18" laneChangedFrom="13" laneChangedTo="13"/>
        <edge id="3/1to3/0" sampledSeconds="760.52" traveltime="66.91" density="4.84" occupancy="1.21" waitingTime="0.00" speed="11.74" departed="3" arrived="0" entered="5" left="14" laneChangedFrom="0" laneChangedTo="0"/>
        <edge id="3/1to3/2" sampledSeconds="845.65" traveltime="67.72" density="5.39" occupancy="1.35" waitingTime="0.00" speed="11.57" departed="1" arrived="0" entered="10" left="14" laneChangedFrom="5" laneChangedTo="5"/>
        <edge id="3/2to2/2" sampledSeconds="3660.18" traveltime="90.60" density="23.33" occupancy="5.83" waitingTime="655.80" speed="8.65" departed="9" arrived="4" entered="27" left="33" laneChangedFrom="28" laneChangedTo="28"/>
        <edge id="3/2to3/1" sampledSeconds="862.48" traveltime="67.44" density="5.50" occupancy="1.37" waitingTime="0.00" speed="11.62" departed="7" arrived="1" entered="8" left="12" laneChangedFrom="0" laneChangedTo="0"/>
        <edge id="3/2to3/3" sampledSeconds="787.48" traveltime="66.39" density="5.01" occupancy="1.25" waitingTime="0.00" speed="11.83" departed="2" arrived="2" entered="6" left="13" laneChangedFrom="2" laneChangedTo="2"/>
        <edge id="3/3to2/3" sampledSeconds="1229.72" traveltime="66.37" density="7.82" occupancy="1.96" waitingTime="0.00" speed="11.83" departed="1" arrived="0" entered="13" left="19" laneChangedFrom="3" laneChangedTo="3"/>
        <edge id="3/3to3/2" sampledSeconds="1123.77" traveltime="66.64" density="7.15" occupancy="1.79" waitingTime="0.00" speed="11.79" departed="4" arrived="2" entered="9" left="17" laneChangedFrom="0" laneChangedTo="0"/>
    </interval>
</meandata>
