<?xml version="1.0" encoding="UTF-8"?>

<!-- generated on Tue Apr  3 20:16:36 2018 by SUMO Version 0.25.0
<?xml version="1.0" encoding="UTF-8"?>

<configuration xmlns:xsi="http://www.w3.org/2001/XMLSchema-instance" xsi:noNamespaceSchemaLocation="http://sumo.dlr.de/xsd/sumoConfiguration.xsd">

    <input>
        <net-file value="roadsetup/grid.net.xml"/>
        <route-files value="roadsetup/grid.rou.xml"/>
        <additional-files value="roadsetup/grid.add.xml"/>
    </input>

    <time>
        <begin value="0"/>
        <end value="1000"/>
        <step-length value="0.1"/>
    </time>

    <processing>
        <max-num-vehicles value="300"/>
    </processing>

    <traci_server>
        <remote-port value="9999"/>
    </traci_server>

    <random_number>
        <seed value="0"/>
    </random_number>

</configuration>
-->

<meandata xmlns:xsi="http://www.w3.org/2001/XMLSchema-instance" xsi:noNamespaceSchemaLocation="http://sumo.dlr.de/xsd/meandata_file.xsd">
    <interval begin="100.00" end="100.10" id="0">
        <edge id="0/0to0/1" sampledSeconds="0.70" traveltime="65.73" density="8.91" occupancy="2.23" waitingTime="0.00" speed="11.95" departed="0" arrived="0" entered="0" left="0" laneChangedFrom="0" laneChangedTo="0"/>
        <edge id="0/0to1/0" sampledSeconds="0.60" traveltime="65.75" density="7.64" occupancy="1.91" waitingTime="0.00" speed="11.94" departed="0" arrived="0" entered="0" left="0" laneChangedFrom="0" laneChangedTo="0"/>
        <edge id="0/1to0/0" sampledSeconds="0.30" traveltime="66.19" density="3.82" occupancy="0.95" waitingTime="0.00" speed="11.87" departed="0" arrived="0" entered="0" left="0" laneChangedFrom="0" laneChangedTo="0"/>
        <edge id="0/1to0/2" sampledSeconds="0.80" traveltime="66.01" density="10.21" occupancy="2.55" waitingTime="0.00" speed="11.88" departed="0" arrived="0" entered="0" left="0" laneChangedFrom="0" laneChangedTo="0"/>
        <edge id="0/1to1/1" sampledSeconds="1.30" traveltime="95.14" density="16.58" occupancy="4.15" waitingTime="0.40" speed="8.24" departed="0" arrived="0" entered="0" left="0" laneChangedFrom="0" laneChangedTo="0"/>
        <edge id="0/2to0/1" sampledSeconds="1.00" traveltime="65.95" density="12.76" occupancy="3.19" waitingTime="0.00" speed="11.89" departed="0" arrived="0" entered="0" left="0" laneChangedFrom="0" laneChangedTo="0"/>
        <edge id="0/2to0/3" sampledSeconds="0.20" traveltime="65.78" density="2.55" occupancy="0.64" waitingTime="0.00" speed="11.94" departed="0" arrived="0" entered="0" left="0" laneChangedFrom="0" laneChangedTo="0"/>
        <edge id="0/2to1/2" sampledSeconds="0.70" traveltime="76.62" density="8.93" occupancy="2.23" waitingTime="0.10" speed="10.23" departed="0" arrived="0" entered="0" left="0" laneChangedFrom="0" laneChangedTo="0"/>
        <edge id="0/3to0/2" sampledSeconds="0.70" traveltime="65.86" density="8.91" occupancy="2.23" waitingTime="0.00" speed="11.92" departed="0" arrived="0" entered="0" left="0" laneChangedFrom="0" laneChangedTo="0"/>
        <edge id="0/3to1/3" sampledSeconds="0.60" traveltime="65.85" density="7.64" occupancy="1.91" waitingTime="0.00" speed="11.93" departed="0" arrived="0" entered="0" left="0" laneChangedFrom="0" laneChangedTo="0"/>
        <edge id="1/0to0/0" sampledSeconds="0.20" traveltime="65.76" density="2.55" occupancy="0.64" waitingTime="0.00" speed="11.94" departed="0" arrived="0" entered="0" left="0" laneChangedFrom="0" laneChangedTo="0"/>
        <edge id="1/0to1/1" sampledSeconds="1.00" traveltime="65.68" density="12.76" occupancy="3.19" waitingTime="0.00" speed="11.93" departed="0" arrived="0" entered="0" left="0" laneChangedFrom="0" laneChangedTo="0"/>
        <edge id="1/0to2/0" sampledSeconds="0.60" traveltime="65.86" density="7.65" occupancy="1.91" waitingTime="0.00" speed="11.90" departed="0" arrived="0" entered="0" left="0" laneChangedFrom="0" laneChangedTo="0"/>
        <edge id="1/1to0/1" sampledSeconds="0.20" traveltime="65.79" density="2.55" occupancy="0.64" waitingTime="0.00" speed="11.92" departed="0" arrived="0" entered="0" left="0" laneChangedFrom="0" laneChangedTo="0"/>
        <edge id="1/1to1/0" sampledSeconds="0.20" traveltime="65.60" density="2.55" occupancy="0.64" waitingTime="0.00" speed="11.95" departed="0" arrived="0" entered="0" left="0" laneChangedFrom="0" laneChangedTo="0"/>
        <edge id="1/1to1/2" sampledSeconds="0.90" traveltime="65.79" density="11.48" occupancy="2.87" waitingTime="0.00" speed="11.92" departed="0" arrived="0" entered="0" left="0" laneChangedFrom="0" laneChangedTo="0"/>
        <edge id="1/1to2/1" sampledSeconds="0.50" traveltime="127.56" density="6.38" occupancy="1.59" waitingTime="0.20" speed="6.15" departed="0" arrived="0" entered="0" left="0" laneChangedFrom="0" laneChangedTo="0"/>
        <edge id="1/2to0/2" sampledSeconds="0.20" traveltime="83.29" density="2.55" occupancy="0.64" waitingTime="0.00" speed="9.41" departed="0" arrived="0" entered="0" left="0" laneChangedFrom="0" laneChangedTo="0"/>
        <edge id="1/2to1/1" sampledSeconds="1.20" traveltime="81.91" density="15.31" occupancy="3.83" waitingTime="0.00" speed="9.57" departed="0" arrived="0" entered="0" left="0" laneChangedFrom="0" laneChangedTo="0"/>
        <edge id="1/2to1/3" sampledSeconds="0.70" traveltime="65.81" density="8.93" occupancy="2.23" waitingTime="0.00" speed="11.91" departed="0" arrived="0" entered="0" left="0" laneChangedFrom="0" laneChangedTo="0"/>
        <edge id="1/2to2/2" sampledSeconds="0.70" traveltime="101.48" density="8.93" occupancy="2.23" waitingTime="0.20" speed="7.72" departed="0" arrived="0" entered="0" left="0" laneChangedFrom="0" laneChangedTo="0"/>
        <edge id="1/3to0/3" sampledSeconds="0.00" departed="0" arrived="0" entered="0" left="0" laneChangedFrom="0" laneChangedTo="0"/>
        <edge id="1/3to1/2" sampledSeconds="1.20" traveltime="65.75" density="15.31" occupancy="3.83" waitingTime="0.00" speed="11.92" departed="0" arrived="0" entered="0" left="0" laneChangedFrom="0" laneChangedTo="0"/>
        <edge id="1/3to2/3" sampledSeconds="0.60" traveltime="65.67" density="7.65" occupancy="1.91" waitingTime="0.00" speed="11.94" departed="0" arrived="0" entered="0" left="0" laneChangedFrom="0" laneChangedTo="0"/>
        <edge id="2/0to1/0" sampledSeconds="0.80" traveltime="65.61" density="10.21" occupancy="2.55" waitingTime="0.00" speed="11.95" departed="0" arrived="0" entered="0" left="0" laneChangedFrom="0" laneChangedTo="0"/>
        <edge id="2/0to2/1" sampledSeconds="1.00" traveltime="65.71" density="12.76" occupancy="3.19" waitingTime="0.00" speed="11.93" departed="0" arrived="0" entered="0" left="0" laneChangedFrom="0" laneChangedTo="0"/>
        <edge id="2/0to3/0" sampledSeconds="0.20" traveltime="65.93" density="2.55" occupancy="0.64" waitingTime="0.00" speed="11.91" departed="0" arrived="0" entered="0" left="0" laneChangedFrom="0" laneChangedTo="0"/>
        <edge id="2/1to1/1" sampledSeconds="1.00" traveltime="85.25" density="12.76" occupancy="3.19" waitingTime="0.20" speed="9.20" departed="0" arrived="0" entered="0" left="0" laneChangedFrom="0" laneChangedTo="0"/>
        <edge id="2/1to2/0" sampledSeconds="0.30" traveltime="65.69" density="3.83" occupancy="0.96" waitingTime="0.00" speed="11.93" departed="0" arrived="0" entered="0" left="0" laneChangedFrom="0" laneChangedTo="0"/>
        <edge id="2/1to2/2" sampledSeconds="0.90" traveltime="78.42" density="11.48" occupancy="2.87" waitingTime="0.00" speed="10.00" departed="0" arrived="0" entered="0" left="0" laneChangedFrom="0" laneChangedTo="0"/>
        <edge id="2/1to3/1" sampledSeconds="0.60" traveltime="82.12" density="7.65" occupancy="1.91" waitingTime="0.00" speed="9.55" departed="0" arrived="0" entered="0" left="0" laneChangedFrom="0" laneChangedTo="0"/>
        <edge id="2/2to1/2" sampledSeconds="0.60" traveltime="71.88" density="7.65" occupancy="1.91" waitingTime="0.00" speed="10.91" departed="0" arrived="0" entered="0" left="0" laneChangedFrom="0" laneChangedTo="0"/>
        <edge id="2/2to2/1" sampledSeconds="0.90" traveltime="65.63" density="11.48" occupancy="2.87" waitingTime="0.00" speed="11.94" departed="0" arrived="0" entered="0" left="0" laneChangedFrom="0" laneChangedTo="0"/>
        <edge id="2/2to2/3" sampledSeconds="0.10" traveltime="66.02" density="1.28" occupancy="0.32" waitingTime="0.00" speed="11.87" departed="0" arrived="0" entered="0" left="0" laneChangedFrom="0" laneChangedTo="0"/>
        <edge id="2/2to3/2" sampledSeconds="0.20" traveltime="65.65" density="2.55" occupancy="0.64" waitingTime="0.00" speed="11.94" departed="0" arrived="0" entered="0" left="0" laneChangedFrom="0" laneChangedTo="0"/>
        <edge id="2/3to1/3" sampledSeconds="0.70" traveltime="65.79" density="8.93" occupancy="2.23" waitingTime="0.00" speed="11.92" departed="0" arrived="0" entered="0" left="0" laneChangedFrom="0" laneChangedTo="0"/>
        <edge id="2/3to2/2" sampledSeconds="0.90" traveltime="65.73" density="11.48" occupancy="2.87" waitingTime="0.00" speed="11.93" departed="0" arrived="0" entered="0" left="0" laneChangedFrom="0" laneChangedTo="0"/>
        <edge id="2/3to3/3" sampledSeconds="0.20" traveltime="65.56" density="2.55" occupancy="0.64" waitingTime="0.00" speed="11.98" departed="0" arrived="0" entered="0" left="0" laneChangedFrom="0" laneChangedTo="0"/>
        <edge id="3/0to2/0" sampledSeconds="0.50" traveltime="65.85" density="6.37" occupancy="1.59" waitingTime="0.00" speed="11.93" departed="0" arrived="0" entered="0" left="0" laneChangedFrom="0" laneChangedTo="0"/>
        <edge id="3/0to3/1" sampledSeconds="0.70" traveltime="65.85" density="8.91" occupancy="2.23" waitingTime="0.00" speed="11.93" departed="0" arrived="0" entered="0" left="0" laneChangedFrom="0" laneChangedTo="0"/>
        <edge id="3/1to2/1" sampledSeconds="1.20" traveltime="65.78" density="15.31" occupancy="3.83" waitingTime="0.00" speed="11.92" departed="0" arrived="0" entered="0" left="0" laneChangedFrom="0" laneChangedTo="0"/>
        <edge id="3/1to3/0" sampledSeconds="0.00" departed="0" arrived="0" entered="0" left="0" laneChangedFrom="0" laneChangedTo="0"/>
        <edge id="3/1to3/2" sampledSeconds="0.40" traveltime="65.96" density="5.10" occupancy="1.28" waitingTime="0.00" speed="11.88" departed="0" arrived="0" entered="0" left="0" laneChangedFrom="0" laneChangedTo="0"/>
        <edge id="3/2to2/2" sampledSeconds="1.30" traveltime="71.22" density="16.58" occupancy="4.15" waitingTime="0.10" speed="11.01" departed="0" arrived="0" entered="0" left="0" laneChangedFrom="0" laneChangedTo="0"/>
        <edge id="3/2to3/1" sampledSeconds="0.70" traveltime="65.71" density="8.93" occupancy="2.23" waitingTime="0.00" speed="11.93" departed="0" arrived="0" entered="0" left="0" laneChangedFrom="0" laneChangedTo="0"/>
        <edge id="3/2to3/3" sampledSeconds="0.00" departed="0" arrived="0" entered="0" left="0" laneChangedFrom="0" laneChangedTo="0"/>
        <edge id="3/3to2/3" sampledSeconds="0.50" traveltime="65.65" density="6.37" occupancy="1.59" waitingTime="0.00" speed="11.96" departed="0" arrived="0" entered="0" left="0" laneChangedFrom="0" laneChangedTo="0"/>
        <edge id="3/3to3/2" sampledSeconds="0.70" traveltime="65.79" density="8.91" occupancy="2.23" waitingTime="0.00" speed="11.94" departed="0" arrived="0" entered="0" left="0" laneChangedFrom="0" laneChangedTo="0"/>
    </interval>
</meandata>
