<?xml version="1.0" encoding="UTF-8"?>

<meandata xmlns:xsi="http://www.w3.org/2001/XMLSchema-instance" xsi:noNamespaceSchemaLocation="http://sumo.dlr.de/xsd/meandata_file.xsd">
    <interval begin="0.00" end="1000.00" id="0">
        <edge id="0/0to0/1">
            <lane id="0/0to0/1_0" sampledSeconds="2125.48" traveltime="109.24" density="1.42" occupancy="0.71" waitingTime="0.00" speed="13.66" departed="8" arrived="3" entered="13" left="13" laneChangedFrom="0" laneChangedTo="0"/>
        </edge>
        <edge id="0/0to1/0">
            <lane id="0/0to1/0_0" sampledSeconds="2536.24" traveltime="110.23" density="1.70" occupancy="0.85" waitingTime="0.00" speed="13.54" departed="8" arrived="5" entered="16" left="17" laneChangedFrom="0" laneChangedTo="0"/>
        </edge>
        <edge id="0/1to0/0">
            <lane id="0/1to0/0_0" sampledSeconds="2466.63" traveltime="109.54" density="1.65" occupancy="0.83" waitingTime="0.00" speed="13.62" departed="10" arrived="5" entered="13" left="16" laneChangedFrom="0" laneChangedTo="0"/>
        </edge>
        <edge id="0/1to0/2">
            <lane id="0/1to0/2_0" sampledSeconds="3819.92" traveltime="109.33" density="2.56" occupancy="1.28" waitingTime="0.00" speed="13.63" departed="12" arrived="3" entered="24" left="30" laneChangedFrom="0" laneChangedTo="0"/>
        </edge>
        <edge id="0/1to1/1">
            <lane id="0/1to1/1_0" sampledSeconds="3818.34" traveltime="112.38" density="2.56" occupancy="1.28" waitingTime="14.20" speed="13.26" departed="8" arrived="3" entered="26" left="28" laneChangedFrom="0" laneChangedTo="0"/>
        </edge>
        <edge id="0/2to0/1">
            <lane id="0/2to0/1_0" sampledSeconds="2969.80" traveltime="110.99" density="1.99" occupancy="1.00" waitingTime="0.00" speed="13.43" departed="10" arrived="1" entered="20" left="22" laneChangedFrom="0" laneChangedTo="0"/>
        </edge>
        <edge id="0/2to0/3">
            <lane id="0/2to0/3_0" sampledSeconds="1808.18" traveltime="110.13" density="1.21" occupancy="0.61" waitingTime="0.00" speed="13.55" departed="10" arrived="3" entered="7" left="12" laneChangedFrom="0" laneChangedTo="0"/>
        </edge>
        <edge id="0/2to1/2">
            <lane id="0/2to1/2_0" sampledSeconds="4899.77" traveltime="114.55" density="3.29" occupancy="1.64" waitingTime="81.20" speed="13.01" departed="13" arrived="5" entered="34" left="34" laneChangedFrom="0" laneChangedTo="0"/>
        </edge>
        <edge id="0/3to0/2">
            <lane id="0/3to0/2_0" sampledSeconds="1854.61" traveltime="109.93" density="1.24" occupancy="0.62" waitingTime="0.00" speed="13.57" departed="5" arrived="3" entered="14" left="12" laneChangedFrom="0" laneChangedTo="0"/>
        </edge>
        <edge id="0/3to1/3">
            <lane id="0/3to1/3_0" sampledSeconds="1800.01" traveltime="109.04" density="1.21" occupancy="0.60" waitingTime="0.00" speed="13.68" departed="6" arrived="3" entered="12" left="11" laneChangedFrom="0" laneChangedTo="0"/>
        </edge>
        <edge id="1/0to0/0">
            <lane id="1/0to0/0_0" sampledSeconds="1771.29" traveltime="109.25" density="1.19" occupancy="0.59" waitingTime="0.00" speed="13.66" departed="4" arrived="2" entered="14" left="13" laneChangedFrom="0" laneChangedTo="0"/>
        </edge>
        <edge id="1/0to1/1">
            <lane id="1/0to1/1_0" sampledSeconds="3374.28" traveltime="109.10" density="2.26" occupancy="1.13" waitingTime="0.00" speed="13.66" departed="6" arrived="1" entered="28" left="26" laneChangedFrom="0" laneChangedTo="0"/>
        </edge>
        <edge id="1/0to2/0">
            <lane id="1/0to2/0_0" sampledSeconds="3144.92" traveltime="110.85" density="2.11" occupancy="1.05" waitingTime="0.00" speed="13.45" departed="9" arrived="2" entered="23" left="25" laneChangedFrom="0" laneChangedTo="0"/>
        </edge>
        <edge id="1/1to0/1">
            <lane id="1/1to0/1_0" sampledSeconds="3818.16" traveltime="111.23" density="2.56" occupancy="1.28" waitingTime="1.50" speed="13.40" departed="8" arrived="5" entered="28" left="28" laneChangedFrom="0" laneChangedTo="0"/>
        </edge>
        <edge id="1/1to1/0">
            <lane id="1/1to1/0_0" sampledSeconds="4510.91" traveltime="111.10" density="3.03" occupancy="1.51" waitingTime="0.10" speed="13.42" departed="10" arrived="4" entered="33" left="31" laneChangedFrom="0" laneChangedTo="0"/>
        </edge>
        <edge id="1/1to1/2">
            <lane id="1/1to1/2_0" sampledSeconds="5613.79" traveltime="109.46" density="3.77" occupancy="1.88" waitingTime="0.00" speed="13.62" departed="15" arrived="6" entered="42" left="43" laneChangedFrom="0" laneChangedTo="0"/>
        </edge>
        <edge id="1/1to2/1">
            <lane id="1/1to2/1_0" sampledSeconds="3519.88" traveltime="112.42" density="2.36" occupancy="1.18" waitingTime="9.20" speed="13.26" departed="5" arrived="1" entered="28" left="28" laneChangedFrom="0" laneChangedTo="0"/>
        </edge>
        <edge id="1/2to0/2">
            <lane id="1/2to0/2_0" sampledSeconds="2477.14" traveltime="111.37" density="1.66" occupancy="0.83" waitingTime="0.00" speed="13.38" departed="7" arrived="2" entered="17" left="20" laneChangedFrom="0" laneChangedTo="0"/>
        </edge>
        <edge id="1/2to1/1">
            <lane id="1/2to1/1_0" sampledSeconds="5192.73" traveltime="109.40" density="3.48" occupancy="1.74" waitingTime="0.00" speed="13.62" departed="5" arrived="2" entered="49" left="40" laneChangedFrom="0" laneChangedTo="0"/>
        </edge>
        <edge id="1/2to1/3">
            <lane id="1/2to1/3_0" sampledSeconds="4852.96" traveltime="110.92" density="3.26" occupancy="1.63" waitingTime="4.30" speed="13.44" departed="7" arrived="6" entered="39" left="34" laneChangedFrom="0" laneChangedTo="0"/>
        </edge>
        <edge id="1/2to2/2">
            <lane id="1/2to2/2_0" sampledSeconds="4150.11" traveltime="110.89" density="2.78" occupancy="1.39" waitingTime="1.60" speed="13.44" departed="4" arrived="6" entered="36" left="30" laneChangedFrom="0" laneChangedTo="0"/>
        </edge>
        <edge id="1/3to0/3">
            <lane id="1/3to0/3_0" sampledSeconds="2913.64" traveltime="109.88" density="1.95" occupancy="0.98" waitingTime="0.00" speed="13.58" departed="14" arrived="7" entered="17" left="14" laneChangedFrom="0" laneChangedTo="0"/>
        </edge>
        <edge id="1/3to1/2">
            <lane id="1/3to1/2_0" sampledSeconds="4128.33" traveltime="109.44" density="2.77" occupancy="1.38" waitingTime="0.00" speed="13.62" departed="8" arrived="4" entered="30" left="33" laneChangedFrom="0" laneChangedTo="0"/>
        </edge>
        <edge id="1/3to2/3">
            <lane id="1/3to2/3_0" sampledSeconds="3578.87" traveltime="109.32" density="2.40" occupancy="1.20" waitingTime="0.00" speed="13.63" departed="11" arrived="6" entered="23" left="25" laneChangedFrom="0" laneChangedTo="0"/>
        </edge>
        <edge id="2/0to1/0">
            <lane id="2/0to1/0_0" sampledSeconds="2328.39" traveltime="108.96" density="1.56" occupancy="0.78" waitingTime="0.00" speed="13.68" departed="5" arrived="3" entered="17" left="17" laneChangedFrom="0" laneChangedTo="0"/>
        </edge>
        <edge id="2/0to2/1">
            <lane id="2/0to2/1_0" sampledSeconds="4407.54" traveltime="110.21" density="2.96" occupancy="1.48" waitingTime="0.00" speed="13.52" departed="12" arrived="2" entered="30" left="35" laneChangedFrom="0" laneChangedTo="0"/>
        </edge>
        <edge id="2/0to3/0">
            <lane id="2/0to3/0_0" sampledSeconds="1825.09" traveltime="109.78" density="1.22" occupancy="0.61" waitingTime="0.00" speed="13.59" departed="9" arrived="3" entered="9" left="11" laneChangedFrom="0" laneChangedTo="0"/>
        </edge>
        <edge id="2/1to1/1">
            <lane id="2/1to1/1_0" sampledSeconds="5613.85" traveltime="112.10" density="3.77" occupancy="1.88" waitingTime="23.00" speed="13.30" departed="7" arrived="7" entered="46" left="37" laneChangedFrom="0" laneChangedTo="0"/>
        </edge>
        <edge id="2/1to2/0">
            <lane id="2/1to2/0_0" sampledSeconds="2376.70" traveltime="111.75" density="1.59" occupancy="0.80" waitingTime="0.00" speed="13.34" departed="10" arrived="3" entered="15" left="16" laneChangedFrom="0" laneChangedTo="0"/>
        </edge>
        <edge id="2/1to2/2">
            <lane id="2/1to2/2_0" sampledSeconds="3459.86" traveltime="109.83" density="2.32" occupancy="1.16" waitingTime="0.00" speed="13.57" departed="6" arrived="3" entered="29" left="23" laneChangedFrom="0" laneChangedTo="0"/>
        </edge>
        <edge id="2/1to3/1">
            <lane id="2/1to3/1_0" sampledSeconds="3579.16" traveltime="111.16" density="2.40" occupancy="1.20" waitingTime="0.00" speed="13.41" departed="11" arrived="8" entered="24" left="23" laneChangedFrom="0" laneChangedTo="0"/>
        </edge>
        <edge id="2/2to1/2">
            <lane id="2/2to1/2_0" sampledSeconds="4931.12" traveltime="115.46" density="3.31" occupancy="1.65" waitingTime="133.70" speed="12.91" departed="10" arrived="6" entered="40" left="31" laneChangedFrom="0" laneChangedTo="0"/>
        </edge>
        <edge id="2/2to2/1">
            <lane id="2/2to2/1_0" sampledSeconds="3116.64" traveltime="109.44" density="2.09" occupancy="1.05" waitingTime="0.00" speed="13.62" departed="6" arrived="2" entered="24" left="25" laneChangedFrom="0" laneChangedTo="0"/>
        </edge>
        <edge id="2/2to2/3">
            <lane id="2/2to2/3_0" sampledSeconds="2781.89" traveltime="111.23" density="1.87" occupancy="0.93" waitingTime="0.00" speed="13.40" departed="10" arrived="5" entered="18" left="17" laneChangedFrom="0" laneChangedTo="0"/>
        </edge>
        <edge id="2/2to3/2">
            <lane id="2/2to3/2_0" sampledSeconds="2778.91" traveltime="111.42" density="1.86" occupancy="0.93" waitingTime="0.00" speed="13.38" departed="5" arrived="3" entered="21" left="19" laneChangedFrom="0" laneChangedTo="0"/>
        </edge>
        <edge id="2/3to1/3">
            <lane id="2/3to1/3_0" sampledSeconds="3108.83" traveltime="110.94" density="2.09" occupancy="1.04" waitingTime="0.00" speed="13.44" departed="10" arrived="1" entered="21" left="25" laneChangedFrom="0" laneChangedTo="0"/>
        </edge>
        <edge id="2/3to2/2">
            <lane id="2/3to2/2_0" sampledSeconds="3408.40" traveltime="108.86" density="2.29" occupancy="1.14" waitingTime="0.00" speed="13.69" departed="7" arrived="4" entered="27" left="24" laneChangedFrom="0" laneChangedTo="0"/>
        </edge>
        <edge id="2/3to3/3">
            <lane id="2/3to3/3_0" sampledSeconds="1748.45" traveltime="109.24" density="1.17" occupancy="0.59" waitingTime="0.00" speed="13.66" departed="5" arrived="4" entered="12" left="11" laneChangedFrom="0" laneChangedTo="0"/>
        </edge>
        <edge id="3/0to2/0">
            <lane id="3/0to2/0_0" sampledSeconds="2570.18" traveltime="108.84" density="1.72" occupancy="0.86" waitingTime="0.00" speed="13.71" departed="7" arrived="7" entered="17" left="15" laneChangedFrom="0" laneChangedTo="0"/>
        </edge>
        <edge id="3/0to3/1">
            <lane id="3/0to3/1_0" sampledSeconds="2294.70" traveltime="111.07" density="1.54" occupancy="0.77" waitingTime="0.00" speed="13.43" departed="10" arrived="1" entered="11" left="18" laneChangedFrom="0" laneChangedTo="0"/>
        </edge>
        <edge id="3/1to2/1">
            <lane id="3/1to2/1_0" sampledSeconds="3410.16" traveltime="111.72" density="2.29" occupancy="1.14" waitingTime="4.10" speed="13.34" departed="7" arrived="4" entered="24" left="26" laneChangedFrom="0" laneChangedTo="0"/>
        </edge>
        <edge id="3/1to3/0">
            <lane id="3/1to3/0_0" sampledSeconds="2147.23" traveltime="109.46" density="1.44" occupancy="0.72" waitingTime="0.00" speed="13.63" departed="7" arrived="2" entered="14" left="17" laneChangedFrom="0" laneChangedTo="0"/>
        </edge>
        <edge id="3/1to3/2">
            <lane id="3/1to3/2_0" sampledSeconds="2430.54" traveltime="110.25" density="1.63" occupancy="0.82" waitingTime="0.00" speed="13.52" departed="7" arrived="5" entered="16" left="16" laneChangedFrom="0" laneChangedTo="0"/>
        </edge>
        <edge id="3/2to2/2">
            <lane id="3/2to2/2_0" sampledSeconds="3359.69" traveltime="112.07" density="2.25" occupancy="1.13" waitingTime="1.70" speed="13.30" departed="8" arrived="2" entered="24" left="26" laneChangedFrom="0" laneChangedTo="0"/>
        </edge>
        <edge id="3/2to3/1">
            <lane id="3/2to3/1_0" sampledSeconds="1866.03" traveltime="109.89" density="1.25" occupancy="0.63" waitingTime="0.00" speed="13.56" departed="9" arrived="2" entered="9" left="13" laneChangedFrom="0" laneChangedTo="0"/>
        </edge>
        <edge id="3/2to3/3">
            <lane id="3/2to3/3_0" sampledSeconds="2715.75" traveltime="109.61" density="1.82" occupancy="0.91" waitingTime="0.00" speed="13.61" departed="11" arrived="7" entered="16" left="16" laneChangedFrom="0" laneChangedTo="0"/>
        </edge>
        <edge id="3/3to2/3">
            <lane id="3/3to2/3_0" sampledSeconds="2668.05" traveltime="109.96" density="1.79" occupancy="0.89" waitingTime="0.00" speed="13.57" departed="10" arrived="6" entered="16" left="18" laneChangedFrom="0" laneChangedTo="0"/>
        </edge>
        <edge id="3/3to3/2">
            <lane id="3/3to3/2_0" sampledSeconds="1903.24" traveltime="109.20" density="1.28" occupancy="0.64" waitingTime="0.00" speed="13.66" departed="7" arrived="2" entered="11" left="14" laneChangedFrom="0" laneChangedTo="0"/>
        </edge>
    </interval>
</meandata>
