<?xml version="1.0" encoding="UTF-8"?>

<!-- generated on Sat Feb 17 13:35:55 2018 by SUMO Version 0.25.0
<?xml version="1.0" encoding="UTF-8"?>

<configuration xmlns:xsi="http://www.w3.org/2001/XMLSchema-instance" xsi:noNamespaceSchemaLocation="http://sumo.dlr.de/xsd/sumoConfiguration.xsd">

    <input>
        <net-file value="roadsetup/grid.net.xml"/>
        <route-files value="roadsetup/grid.rou.xml"/>
        <additional-files value="roadsetup/grid.add.xml"/>
    </input>

    <time>
        <begin value="0"/>
        <end value="1000"/>
        <step-length value="0.1"/>
    </time>

    <traci_server>
        <remote-port value="9999"/>
    </traci_server>

    <random_number>
        <seed value="0"/>
    </random_number>

</configuration>
-->

<meandata xmlns:xsi="http://www.w3.org/2001/XMLSchema-instance" xsi:noNamespaceSchemaLocation="http://sumo.dlr.de/xsd/meandata_file.xsd">
    <interval begin="0.00" end="100.10" id="0">
        <edge id="0/0to0/1">
            <lane id="0/0to0/1_0" sampledSeconds="31.39" traveltime="15.50" density="1.63" occupancy="0.82" waitingTime="0.00" speed="12.39" departed="1" arrived="0" entered="1" left="2" laneChangedFrom="0" laneChangedTo="0"/>
        </edge>
        <edge id="0/0to1/0">
            <lane id="0/0to1/0_0" sampledSeconds="20.31" traveltime="18.23" density="1.06" occupancy="0.53" waitingTime="0.00" speed="10.53" departed="1" arrived="0" entered="1" left="1" laneChangedFrom="0" laneChangedTo="0"/>
        </edge>
        <edge id="0/1to0/0">
            <lane id="0/1to0/0_0" sampledSeconds="17.36" traveltime="17.37" density="0.90" occupancy="0.45" waitingTime="0.00" speed="11.06" departed="1" arrived="0" entered="0" left="1" laneChangedFrom="0" laneChangedTo="0"/>
        </edge>
        <edge id="0/1to0/2">
            <lane id="0/1to0/2_0" sampledSeconds="62.87" traveltime="15.61" density="3.30" occupancy="1.65" waitingTime="0.00" speed="12.21" departed="2" arrived="1" entered="2" left="3" laneChangedFrom="0" laneChangedTo="0"/>
        </edge>
        <edge id="0/1to1/1">
            <lane id="0/1to1/1_0" sampledSeconds="16.63" traveltime="16.20" density="0.87" occupancy="0.44" waitingTime="0.00" speed="11.76" departed="0" arrived="0" entered="1" left="1" laneChangedFrom="0" laneChangedTo="0"/>
        </edge>
        <edge id="0/2to0/1">
            <lane id="0/2to0/1_0" sampledSeconds="4.64" traveltime="15.72" density="0.24" occupancy="0.12" waitingTime="0.00" speed="12.12" departed="0" arrived="0" entered="1" left="0" laneChangedFrom="0" laneChangedTo="0"/>
        </edge>
        <edge id="0/2to0/3">
            <lane id="0/2to0/3_0" sampledSeconds="31.44" traveltime="15.52" density="1.64" occupancy="0.82" waitingTime="0.00" speed="12.37" departed="1" arrived="0" entered="1" left="2" laneChangedFrom="0" laneChangedTo="0"/>
        </edge>
        <edge id="0/2to1/2">
            <lane id="0/2to1/2_0" sampledSeconds="36.83" traveltime="17.94" density="1.93" occupancy="0.97" waitingTime="0.00" speed="10.62" departed="0" arrived="0" entered="2" left="2" laneChangedFrom="0" laneChangedTo="0"/>
        </edge>
        <edge id="0/3to0/2">
            <lane id="0/3to0/2_0" sampledSeconds="7.00" traveltime="27.03" density="0.36" occupancy="0.18" waitingTime="0.00" speed="7.10" departed="1" arrived="0" entered="0" left="0" laneChangedFrom="0" laneChangedTo="0"/>
        </edge>
        <edge id="0/3to1/3">
            <lane id="0/3to1/3_0" sampledSeconds="45.79" traveltime="15.01" density="2.38" occupancy="1.19" waitingTime="0.00" speed="12.80" departed="1" arrived="0" entered="2" left="3" laneChangedFrom="0" laneChangedTo="0"/>
        </edge>
        <edge id="1/0to0/0">
            <lane id="1/0to0/0_0" sampledSeconds="17.21" traveltime="17.21" density="0.90" occupancy="0.45" waitingTime="0.00" speed="11.15" departed="1" arrived="0" entered="0" left="1" laneChangedFrom="0" laneChangedTo="0"/>
        </edge>
        <edge id="1/0to1/1">
            <lane id="1/0to1/1_0" sampledSeconds="9.59" traveltime="14.98" density="0.50" occupancy="0.25" waitingTime="0.00" speed="12.72" departed="0" arrived="0" entered="2" left="0" laneChangedFrom="0" laneChangedTo="0"/>
        </edge>
        <edge id="1/0to2/0">
            <lane id="1/0to2/0_0" sampledSeconds="0.00" departed="0" arrived="0" entered="0" left="0" laneChangedFrom="0" laneChangedTo="0"/>
        </edge>
        <edge id="1/1to0/1">
            <lane id="1/1to0/1_0" sampledSeconds="16.66" traveltime="16.23" density="0.87" occupancy="0.44" waitingTime="0.00" speed="11.73" departed="0" arrived="0" entered="1" left="1" laneChangedFrom="0" laneChangedTo="0"/>
        </edge>
        <edge id="1/1to1/0">
            <lane id="1/1to1/0_0" sampledSeconds="26.66" traveltime="14.09" density="1.40" occupancy="0.70" waitingTime="0.00" speed="13.52" departed="0" arrived="1" entered="2" left="0" laneChangedFrom="0" laneChangedTo="0"/>
        </edge>
        <edge id="1/1to1/2">
            <lane id="1/1to1/2_0" sampledSeconds="29.40" traveltime="15.74" density="1.54" occupancy="0.77" waitingTime="0.00" speed="12.10" departed="0" arrived="0" entered="2" left="1" laneChangedFrom="0" laneChangedTo="0"/>
        </edge>
        <edge id="1/1to2/1">
            <lane id="1/1to2/1_0" sampledSeconds="74.94" traveltime="16.56" density="3.93" occupancy="1.96" waitingTime="0.00" speed="11.50" departed="1" arrived="0" entered="5" left="3" laneChangedFrom="0" laneChangedTo="0"/>
        </edge>
        <edge id="1/2to0/2">
            <lane id="1/2to0/2_0" sampledSeconds="66.32" traveltime="16.77" density="3.48" occupancy="1.74" waitingTime="0.00" speed="11.36" departed="1" arrived="2" entered="4" left="1" laneChangedFrom="0" laneChangedTo="0"/>
        </edge>
        <edge id="1/2to1/1">
            <lane id="1/2to1/1_0" sampledSeconds="100.11" traveltime="16.33" density="5.25" occupancy="2.63" waitingTime="0.00" speed="11.67" departed="1" arrived="0" entered="5" left="6" laneChangedFrom="0" laneChangedTo="0"/>
        </edge>
        <edge id="1/2to1/3">
            <lane id="1/2to1/3_0" sampledSeconds="0.00" departed="0" arrived="0" entered="0" left="0" laneChangedFrom="0" laneChangedTo="0"/>
        </edge>
        <edge id="1/2to2/2">
            <lane id="1/2to2/2_0" sampledSeconds="34.71" traveltime="16.91" density="1.82" occupancy="0.91" waitingTime="0.00" speed="11.27" departed="0" arrived="0" entered="2" left="2" laneChangedFrom="0" laneChangedTo="0"/>
        </edge>
        <edge id="1/3to0/3">
            <lane id="1/3to0/3_0" sampledSeconds="0.00" departed="0" arrived="0" entered="0" left="0" laneChangedFrom="0" laneChangedTo="0"/>
        </edge>
        <edge id="1/3to1/2">
            <lane id="1/3to1/2_0" sampledSeconds="88.24" traveltime="14.52" density="4.63" occupancy="2.31" waitingTime="0.00" speed="13.12" departed="0" arrived="1" entered="6" left="4" laneChangedFrom="0" laneChangedTo="0"/>
        </edge>
        <edge id="1/3to2/3">
            <lane id="1/3to2/3_0" sampledSeconds="17.21" traveltime="17.22" density="0.90" occupancy="0.45" waitingTime="0.00" speed="11.06" departed="1" arrived="0" entered="0" left="1" laneChangedFrom="0" laneChangedTo="0"/>
        </edge>
        <edge id="2/0to1/0">
            <lane id="2/0to1/0_0" sampledSeconds="37.40" traveltime="14.08" density="1.96" occupancy="0.98" waitingTime="0.00" speed="13.53" departed="0" arrived="0" entered="3" left="1" laneChangedFrom="0" laneChangedTo="0"/>
        </edge>
        <edge id="2/0to2/1">
            <lane id="2/0to2/1_0" sampledSeconds="49.60" traveltime="17.56" density="2.60" occupancy="1.30" waitingTime="0.00" speed="10.85" departed="2" arrived="0" entered="1" left="2" laneChangedFrom="0" laneChangedTo="0"/>
        </edge>
        <edge id="2/0to3/0">
            <lane id="2/0to3/0_0" sampledSeconds="17.21" traveltime="17.22" density="0.90" occupancy="0.45" waitingTime="0.00" speed="11.15" departed="1" arrived="0" entered="0" left="1" laneChangedFrom="0" laneChangedTo="0"/>
        </edge>
        <edge id="2/1to1/1">
            <lane id="2/1to1/1_0" sampledSeconds="68.20" traveltime="16.18" density="3.58" occupancy="1.79" waitingTime="0.00" speed="11.78" departed="0" arrived="1" entered="5" left="3" laneChangedFrom="0" laneChangedTo="0"/>
        </edge>
        <edge id="2/1to2/0">
            <lane id="2/1to2/0_0" sampledSeconds="31.80" traveltime="15.52" density="1.67" occupancy="0.83" waitingTime="0.00" speed="12.28" departed="0" arrived="1" entered="3" left="1" laneChangedFrom="0" laneChangedTo="0"/>
        </edge>
        <edge id="2/1to2/2">
            <lane id="2/1to2/2_0" sampledSeconds="57.75" traveltime="19.26" density="3.03" occupancy="1.51" waitingTime="0.00" speed="9.89" departed="3" arrived="0" entered="0" left="3" laneChangedFrom="0" laneChangedTo="0"/>
        </edge>
        <edge id="2/1to3/1">
            <lane id="2/1to3/1_0" sampledSeconds="35.40" traveltime="17.89" density="1.86" occupancy="0.93" waitingTime="0.00" speed="10.65" departed="1" arrived="0" entered="1" left="1" laneChangedFrom="0" laneChangedTo="0"/>
        </edge>
        <edge id="2/2to1/2">
            <lane id="2/2to1/2_0" sampledSeconds="75.37" traveltime="18.08" density="3.95" occupancy="1.98" waitingTime="0.00" speed="10.54" departed="1" arrived="0" entered="4" left="4" laneChangedFrom="0" laneChangedTo="0"/>
        </edge>
        <edge id="2/2to2/1">
            <lane id="2/2to2/1_0" sampledSeconds="29.06" traveltime="14.16" density="1.52" occupancy="0.76" waitingTime="0.00" speed="13.46" departed="0" arrived="0" entered="2" left="2" laneChangedFrom="0" laneChangedTo="0"/>
        </edge>
        <edge id="2/2to2/3">
            <lane id="2/2to2/3_0" sampledSeconds="32.58" traveltime="19.13" density="1.71" occupancy="0.85" waitingTime="0.00" speed="9.96" departed="2" arrived="0" entered="0" left="1" laneChangedFrom="0" laneChangedTo="0"/>
        </edge>
        <edge id="2/2to3/2">
            <lane id="2/2to3/2_0" sampledSeconds="17.17" traveltime="16.73" density="0.90" occupancy="0.45" waitingTime="0.00" speed="11.39" departed="0" arrived="0" entered="1" left="1" laneChangedFrom="0" laneChangedTo="0"/>
        </edge>
        <edge id="2/3to1/3">
            <lane id="2/3to1/3_0" sampledSeconds="70.60" traveltime="17.31" density="3.70" occupancy="1.85" waitingTime="0.00" speed="11.01" departed="1" arrived="0" entered="3" left="4" laneChangedFrom="0" laneChangedTo="0"/>
        </edge>
        <edge id="2/3to2/2">
            <lane id="2/3to2/2_0" sampledSeconds="45.14" traveltime="16.22" density="2.37" occupancy="1.18" waitingTime="0.00" speed="11.74" departed="2" arrived="0" entered="1" left="2" laneChangedFrom="0" laneChangedTo="0"/>
        </edge>
        <edge id="2/3to3/3">
            <lane id="2/3to3/3_0" sampledSeconds="0.00" departed="0" arrived="0" entered="0" left="0" laneChangedFrom="0" laneChangedTo="0"/>
        </edge>
        <edge id="3/0to2/0">
            <lane id="3/0to2/0_0" sampledSeconds="48.66" traveltime="16.09" density="2.53" occupancy="1.27" waitingTime="0.00" speed="11.94" departed="2" arrived="0" entered="1" left="3" laneChangedFrom="0" laneChangedTo="0"/>
        </edge>
        <edge id="3/0to3/1">
            <lane id="3/0to3/1_0" sampledSeconds="54.83" traveltime="18.17" density="2.85" occupancy="1.43" waitingTime="0.00" speed="10.57" departed="2" arrived="0" entered="1" left="3" laneChangedFrom="0" laneChangedTo="0"/>
        </edge>
        <edge id="3/1to2/1">
            <lane id="3/1to2/1_0" sampledSeconds="50.45" traveltime="16.61" density="2.65" occupancy="1.32" waitingTime="0.00" speed="11.47" departed="0" arrived="0" entered="3" left="2" laneChangedFrom="0" laneChangedTo="0"/>
        </edge>
        <edge id="3/1to3/0">
            <lane id="3/1to3/0_0" sampledSeconds="14.98" traveltime="14.60" density="0.78" occupancy="0.39" waitingTime="0.00" speed="13.15" departed="0" arrived="0" entered="1" left="1" laneChangedFrom="0" laneChangedTo="0"/>
        </edge>
        <edge id="3/1to3/2">
            <lane id="3/1to3/2_0" sampledSeconds="0.00" departed="0" arrived="0" entered="0" left="0" laneChangedFrom="0" laneChangedTo="0"/>
        </edge>
        <edge id="3/2to2/2">
            <lane id="3/2to2/2_0" sampledSeconds="0.00" departed="0" arrived="0" entered="0" left="0" laneChangedFrom="0" laneChangedTo="0"/>
        </edge>
        <edge id="3/2to3/1">
            <lane id="3/2to3/1_0" sampledSeconds="17.11" traveltime="17.12" density="0.90" occupancy="0.45" waitingTime="0.00" speed="11.13" departed="1" arrived="0" entered="0" left="1" laneChangedFrom="0" laneChangedTo="0"/>
        </edge>
        <edge id="3/2to3/3">
            <lane id="3/2to3/3_0" sampledSeconds="22.96" traveltime="16.73" density="1.19" occupancy="0.60" waitingTime="0.00" speed="11.47" departed="1" arrived="0" entered="1" left="1" laneChangedFrom="0" laneChangedTo="0"/>
        </edge>
        <edge id="3/3to2/3">
            <lane id="3/3to2/3_0" sampledSeconds="32.37" traveltime="15.98" density="1.68" occupancy="0.84" waitingTime="0.00" speed="12.01" departed="1" arrived="0" entered="1" left="2" laneChangedFrom="0" laneChangedTo="0"/>
        </edge>
        <edge id="3/3to3/2">
            <lane id="3/3to3/2_0" sampledSeconds="10.00" traveltime="20.76" density="0.52" occupancy="0.26" waitingTime="0.00" speed="9.25" departed="1" arrived="0" entered="0" left="0" laneChangedFrom="0" laneChangedTo="0"/>
        </edge>
    </interval>
</meandata>
