<?xml version="1.0" encoding="UTF-8"?>

<!-- generated on Thu Feb 22 18:13:25 2018 by SUMO Version 0.25.0
<?xml version="1.0" encoding="UTF-8"?>

<configuration xmlns:xsi="http://www.w3.org/2001/XMLSchema-instance" xsi:noNamespaceSchemaLocation="http://sumo.dlr.de/xsd/sumoConfiguration.xsd">

    <input>
        <net-file value="roadsetup/grid.net.xml"/>
        <route-files value="roadsetup/grid.rou.xml"/>
        <additional-files value="roadsetup/grid.add.xml"/>
    </input>

    <time>
        <begin value="0"/>
        <end value="1000"/>
        <step-length value="0.1"/>
    </time>

    <processing>
        <max-num-vehicles value="400"/>
    </processing>

    <traci_server>
        <remote-port value="9999"/>
    </traci_server>

    <random_number>
        <seed value="0"/>
    </random_number>

</configuration>
-->

<meandata xmlns:xsi="http://www.w3.org/2001/XMLSchema-instance" xsi:noNamespaceSchemaLocation="http://sumo.dlr.de/xsd/meandata_file.xsd">
    <interval begin="0.00" end="56.50" id="0">
        <edge id="0/0to0/1">
            <lane id="0/0to0/1_0" sampledSeconds="103.80" traveltime="74.09" density="2.34" occupancy="1.17" waitingTime="0.00" speed="10.60" departed="4" arrived="0" entered="0" left="0" laneChangedFrom="0" laneChangedTo="0"/>
            <lane id="0/0to0/1_1" sampledSeconds="0.00" departed="0" arrived="0" entered="0" left="0" laneChangedFrom="0" laneChangedTo="0"/>
        </edge>
        <edge id="0/0to1/0">
            <lane id="0/0to1/0_0" sampledSeconds="62.70" traveltime="72.46" density="1.41" occupancy="0.71" waitingTime="0.00" speed="10.84" departed="2" arrived="0" entered="0" left="0" laneChangedFrom="0" laneChangedTo="0"/>
            <lane id="0/0to1/0_1" sampledSeconds="0.00" departed="0" arrived="0" entered="0" left="0" laneChangedFrom="0" laneChangedTo="0"/>
        </edge>
        <edge id="0/1to0/0">
            <lane id="0/1to0/0_0" sampledSeconds="201.30" traveltime="70.81" density="4.54" occupancy="2.27" waitingTime="0.00" speed="11.09" departed="5" arrived="0" entered="0" left="0" laneChangedFrom="0" laneChangedTo="0"/>
            <lane id="0/1to0/0_1" sampledSeconds="0.00" departed="0" arrived="0" entered="0" left="0" laneChangedFrom="0" laneChangedTo="0"/>
        </edge>
        <edge id="0/1to0/2">
            <lane id="0/1to0/2_0" sampledSeconds="132.30" traveltime="73.69" density="2.99" occupancy="1.49" waitingTime="0.00" speed="10.64" departed="6" arrived="0" entered="0" left="0" laneChangedFrom="0" laneChangedTo="0"/>
            <lane id="0/1to0/2_1" sampledSeconds="0.00" departed="0" arrived="0" entered="0" left="0" laneChangedFrom="0" laneChangedTo="0"/>
        </edge>
        <edge id="0/1to1/1">
            <lane id="0/1to1/1_0" sampledSeconds="131.90" traveltime="71.95" density="2.98" occupancy="1.49" waitingTime="0.00" speed="10.89" departed="4" arrived="0" entered="0" left="0" laneChangedFrom="1" laneChangedTo="0"/>
            <lane id="0/1to1/1_1" sampledSeconds="4.90" traveltime="65.65" density="0.11" occupancy="0.06" waitingTime="0.00" speed="11.94" departed="0" arrived="0" entered="0" left="0" laneChangedFrom="0" laneChangedTo="1"/>
        </edge>
        <edge id="0/2to0/1">
            <lane id="0/2to0/1_0" sampledSeconds="0.00" departed="0" arrived="0" entered="0" left="0" laneChangedFrom="0" laneChangedTo="0"/>
            <lane id="0/2to0/1_1" sampledSeconds="0.00" departed="0" arrived="0" entered="0" left="0" laneChangedFrom="0" laneChangedTo="0"/>
        </edge>
        <edge id="0/2to0/3">
            <lane id="0/2to0/3_0" sampledSeconds="99.90" traveltime="71.74" density="2.25" occupancy="1.13" waitingTime="0.00" speed="10.95" departed="3" arrived="0" entered="0" left="0" laneChangedFrom="0" laneChangedTo="0"/>
            <lane id="0/2to0/3_1" sampledSeconds="0.00" departed="0" arrived="0" entered="0" left="0" laneChangedFrom="0" laneChangedTo="0"/>
        </edge>
        <edge id="0/2to1/2">
            <lane id="0/2to1/2_0" sampledSeconds="116.40" traveltime="72.69" density="2.63" occupancy="1.31" waitingTime="0.00" speed="10.78" departed="4" arrived="0" entered="0" left="0" laneChangedFrom="0" laneChangedTo="0"/>
            <lane id="0/2to1/2_1" sampledSeconds="0.00" departed="0" arrived="0" entered="0" left="0" laneChangedFrom="0" laneChangedTo="0"/>
        </edge>
        <edge id="0/3to0/2">
            <lane id="0/3to0/2_0" sampledSeconds="85.80" traveltime="73.34" density="1.93" occupancy="0.97" waitingTime="0.00" speed="10.71" departed="3" arrived="0" entered="0" left="0" laneChangedFrom="0" laneChangedTo="0"/>
            <lane id="0/3to0/2_1" sampledSeconds="0.00" departed="0" arrived="0" entered="0" left="0" laneChangedFrom="0" laneChangedTo="0"/>
        </edge>
        <edge id="0/3to1/3">
            <lane id="0/3to1/3_0" sampledSeconds="144.60" traveltime="74.15" density="3.26" occupancy="1.63" waitingTime="0.00" speed="10.59" departed="6" arrived="0" entered="0" left="0" laneChangedFrom="0" laneChangedTo="0"/>
            <lane id="0/3to1/3_1" sampledSeconds="0.00" departed="0" arrived="0" entered="0" left="0" laneChangedFrom="0" laneChangedTo="0"/>
        </edge>
        <edge id="1/0to0/0">
            <lane id="1/0to0/0_0" sampledSeconds="106.00" traveltime="73.64" density="2.39" occupancy="1.19" waitingTime="0.00" speed="10.67" departed="4" arrived="0" entered="0" left="0" laneChangedFrom="0" laneChangedTo="0"/>
            <lane id="1/0to0/0_1" sampledSeconds="0.00" departed="0" arrived="0" entered="0" left="0" laneChangedFrom="0" laneChangedTo="0"/>
        </edge>
        <edge id="1/0to1/1">
            <lane id="1/0to1/1_0" sampledSeconds="194.30" traveltime="72.10" density="4.39" occupancy="2.19" waitingTime="0.00" speed="10.87" departed="6" arrived="0" entered="0" left="0" laneChangedFrom="0" laneChangedTo="0"/>
            <lane id="1/0to1/1_1" sampledSeconds="0.00" departed="0" arrived="0" entered="0" left="0" laneChangedFrom="0" laneChangedTo="0"/>
        </edge>
        <edge id="1/0to2/0">
            <lane id="1/0to2/0_0" sampledSeconds="148.00" traveltime="71.34" density="3.34" occupancy="1.67" waitingTime="0.00" speed="10.99" departed="5" arrived="0" entered="0" left="0" laneChangedFrom="0" laneChangedTo="0"/>
            <lane id="1/0to2/0_1" sampledSeconds="0.00" departed="0" arrived="0" entered="0" left="0" laneChangedFrom="0" laneChangedTo="0"/>
        </edge>
        <edge id="1/1to0/1">
            <lane id="1/1to0/1_0" sampledSeconds="110.50" traveltime="72.94" density="2.49" occupancy="1.25" waitingTime="0.00" speed="10.75" departed="4" arrived="0" entered="0" left="0" laneChangedFrom="0" laneChangedTo="0"/>
            <lane id="1/1to0/1_1" sampledSeconds="0.00" departed="0" arrived="0" entered="0" left="0" laneChangedFrom="0" laneChangedTo="0"/>
        </edge>
        <edge id="1/1to1/0">
            <lane id="1/1to1/0_0" sampledSeconds="124.50" traveltime="73.80" density="2.81" occupancy="1.41" waitingTime="0.00" speed="10.62" departed="5" arrived="0" entered="0" left="0" laneChangedFrom="0" laneChangedTo="0"/>
            <lane id="1/1to1/0_1" sampledSeconds="0.00" departed="0" arrived="0" entered="0" left="0" laneChangedFrom="0" laneChangedTo="0"/>
        </edge>
        <edge id="1/1to1/2">
            <lane id="1/1to1/2_0" sampledSeconds="50.50" traveltime="73.75" density="1.14" occupancy="0.57" waitingTime="0.00" speed="10.63" departed="3" arrived="0" entered="0" left="0" laneChangedFrom="1" laneChangedTo="0"/>
            <lane id="1/1to1/2_1" sampledSeconds="5.00" traveltime="65.71" density="0.11" occupancy="0.06" waitingTime="0.00" speed="11.93" departed="0" arrived="0" entered="0" left="0" laneChangedFrom="0" laneChangedTo="1"/>
        </edge>
        <edge id="1/1to2/1">
            <lane id="1/1to2/1_0" sampledSeconds="46.50" traveltime="74.96" density="1.05" occupancy="0.52" waitingTime="0.00" speed="10.46" departed="2" arrived="0" entered="0" left="0" laneChangedFrom="0" laneChangedTo="0"/>
            <lane id="1/1to2/1_1" sampledSeconds="0.00" departed="0" arrived="0" entered="0" left="0" laneChangedFrom="0" laneChangedTo="0"/>
        </edge>
        <edge id="1/2to0/2">
            <lane id="1/2to0/2_0" sampledSeconds="128.90" traveltime="73.85" density="2.91" occupancy="1.46" waitingTime="0.00" speed="10.62" departed="5" arrived="0" entered="0" left="0" laneChangedFrom="1" laneChangedTo="0"/>
            <lane id="1/2to0/2_1" sampledSeconds="0.40" traveltime="65.74" density="0.01" occupancy="0.00" waitingTime="0.00" speed="11.92" departed="0" arrived="0" entered="0" left="0" laneChangedFrom="0" laneChangedTo="1"/>
        </edge>
        <edge id="1/2to1/1">
            <lane id="1/2to1/1_0" sampledSeconds="127.80" traveltime="73.91" density="2.89" occupancy="1.44" waitingTime="0.00" speed="10.61" departed="5" arrived="0" entered="0" left="0" laneChangedFrom="0" laneChangedTo="0"/>
            <lane id="1/2to1/1_1" sampledSeconds="0.00" departed="0" arrived="0" entered="0" left="0" laneChangedFrom="0" laneChangedTo="0"/>
        </edge>
        <edge id="1/2to1/3">
            <lane id="1/2to1/3_0" sampledSeconds="258.40" traveltime="71.18" density="5.83" occupancy="2.92" waitingTime="0.00" speed="11.01" departed="7" arrived="0" entered="0" left="0" laneChangedFrom="0" laneChangedTo="0"/>
            <lane id="1/2to1/3_1" sampledSeconds="0.00" departed="0" arrived="0" entered="0" left="0" laneChangedFrom="0" laneChangedTo="0"/>
        </edge>
        <edge id="1/2to2/2">
            <lane id="1/2to2/2_0" sampledSeconds="70.20" traveltime="78.41" density="1.58" occupancy="0.79" waitingTime="0.00" speed="10.00" departed="4" arrived="0" entered="0" left="0" laneChangedFrom="0" laneChangedTo="0"/>
            <lane id="1/2to2/2_1" sampledSeconds="0.00" departed="0" arrived="0" entered="0" left="0" laneChangedFrom="0" laneChangedTo="0"/>
        </edge>
        <edge id="1/3to0/3">
            <lane id="1/3to0/3_0" sampledSeconds="42.30" traveltime="76.43" density="0.95" occupancy="0.48" waitingTime="0.00" speed="10.28" departed="2" arrived="0" entered="0" left="0" laneChangedFrom="0" laneChangedTo="0"/>
            <lane id="1/3to0/3_1" sampledSeconds="0.00" departed="0" arrived="0" entered="0" left="0" laneChangedFrom="0" laneChangedTo="0"/>
        </edge>
        <edge id="1/3to1/2">
            <lane id="1/3to1/2_0" sampledSeconds="78.70" traveltime="73.62" density="1.78" occupancy="0.89" waitingTime="0.00" speed="10.65" departed="3" arrived="0" entered="0" left="0" laneChangedFrom="0" laneChangedTo="0"/>
            <lane id="1/3to1/2_1" sampledSeconds="0.00" departed="0" arrived="0" entered="0" left="0" laneChangedFrom="0" laneChangedTo="0"/>
        </edge>
        <edge id="1/3to2/3">
            <lane id="1/3to2/3_0" sampledSeconds="140.10" traveltime="74.11" density="3.16" occupancy="1.58" waitingTime="0.00" speed="10.58" departed="6" arrived="0" entered="0" left="0" laneChangedFrom="0" laneChangedTo="0"/>
            <lane id="1/3to2/3_1" sampledSeconds="0.00" departed="0" arrived="0" entered="0" left="0" laneChangedFrom="0" laneChangedTo="0"/>
        </edge>
        <edge id="2/0to1/0">
            <lane id="2/0to1/0_0" sampledSeconds="73.80" traveltime="71.32" density="1.67" occupancy="0.83" waitingTime="0.00" speed="10.99" departed="2" arrived="0" entered="0" left="0" laneChangedFrom="0" laneChangedTo="0"/>
            <lane id="2/0to1/0_1" sampledSeconds="0.00" departed="0" arrived="0" entered="0" left="0" laneChangedFrom="0" laneChangedTo="0"/>
        </edge>
        <edge id="2/0to2/1">
            <lane id="2/0to2/1_0" sampledSeconds="82.40" traveltime="70.54" density="1.86" occupancy="0.93" waitingTime="0.00" speed="11.11" departed="2" arrived="0" entered="0" left="0" laneChangedFrom="1" laneChangedTo="0"/>
            <lane id="2/0to2/1_1" sampledSeconds="4.60" traveltime="65.68" density="0.10" occupancy="0.05" waitingTime="0.00" speed="11.93" departed="0" arrived="0" entered="0" left="0" laneChangedFrom="0" laneChangedTo="1"/>
        </edge>
        <edge id="2/0to3/0">
            <lane id="2/0to3/0_0" sampledSeconds="68.40" traveltime="71.93" density="1.54" occupancy="0.77" waitingTime="0.00" speed="10.92" departed="2" arrived="0" entered="0" left="0" laneChangedFrom="0" laneChangedTo="0"/>
            <lane id="2/0to3/0_1" sampledSeconds="0.00" departed="0" arrived="0" entered="0" left="0" laneChangedFrom="0" laneChangedTo="0"/>
        </edge>
        <edge id="2/1to1/1">
            <lane id="2/1to1/1_0" sampledSeconds="100.20" traveltime="70.46" density="2.26" occupancy="1.13" waitingTime="0.00" speed="11.12" departed="3" arrived="0" entered="0" left="0" laneChangedFrom="0" laneChangedTo="0"/>
            <lane id="2/1to1/1_1" sampledSeconds="0.00" departed="0" arrived="0" entered="0" left="0" laneChangedFrom="0" laneChangedTo="0"/>
        </edge>
        <edge id="2/1to2/0">
            <lane id="2/1to2/0_0" sampledSeconds="209.70" traveltime="72.19" density="4.73" occupancy="2.37" waitingTime="0.00" speed="10.86" departed="7" arrived="0" entered="0" left="0" laneChangedFrom="0" laneChangedTo="0"/>
            <lane id="2/1to2/0_1" sampledSeconds="0.00" departed="0" arrived="0" entered="0" left="0" laneChangedFrom="0" laneChangedTo="0"/>
        </edge>
        <edge id="2/1to2/2">
            <lane id="2/1to2/2_0" sampledSeconds="19.50" traveltime="76.55" density="0.44" occupancy="0.22" waitingTime="0.00" speed="10.24" departed="1" arrived="0" entered="0" left="0" laneChangedFrom="0" laneChangedTo="0"/>
            <lane id="2/1to2/2_1" sampledSeconds="0.00" departed="0" arrived="0" entered="0" left="0" laneChangedFrom="0" laneChangedTo="0"/>
        </edge>
        <edge id="2/1to3/1">
            <lane id="2/1to3/1_0" sampledSeconds="165.00" traveltime="73.49" density="3.73" occupancy="1.86" waitingTime="0.00" speed="10.67" departed="6" arrived="0" entered="0" left="0" laneChangedFrom="1" laneChangedTo="0"/>
            <lane id="2/1to3/1_1" sampledSeconds="8.40" traveltime="65.66" density="0.19" occupancy="0.09" waitingTime="0.00" speed="11.94" departed="0" arrived="0" entered="0" left="0" laneChangedFrom="0" laneChangedTo="1"/>
        </edge>
        <edge id="2/2to1/2">
            <lane id="2/2to1/2_0" sampledSeconds="65.40" traveltime="72.06" density="1.48" occupancy="0.74" waitingTime="0.00" speed="10.88" departed="2" arrived="0" entered="0" left="0" laneChangedFrom="0" laneChangedTo="0"/>
            <lane id="2/2to1/2_1" sampledSeconds="0.00" departed="0" arrived="0" entered="0" left="0" laneChangedFrom="0" laneChangedTo="0"/>
        </edge>
        <edge id="2/2to2/1">
            <lane id="2/2to2/1_0" sampledSeconds="142.00" traveltime="71.50" density="3.21" occupancy="1.60" waitingTime="0.00" speed="10.96" departed="4" arrived="0" entered="0" left="0" laneChangedFrom="1" laneChangedTo="0"/>
            <lane id="2/2to2/1_1" sampledSeconds="9.50" traveltime="65.69" density="0.21" occupancy="0.11" waitingTime="0.00" speed="11.93" departed="0" arrived="0" entered="0" left="0" laneChangedFrom="0" laneChangedTo="1"/>
        </edge>
        <edge id="2/2to2/3">
            <lane id="2/2to2/3_0" sampledSeconds="89.70" traveltime="77.89" density="2.03" occupancy="1.01" waitingTime="0.00" speed="10.06" departed="5" arrived="0" entered="0" left="0" laneChangedFrom="0" laneChangedTo="0"/>
            <lane id="2/2to2/3_1" sampledSeconds="0.00" departed="0" arrived="0" entered="0" left="0" laneChangedFrom="0" laneChangedTo="0"/>
        </edge>
        <edge id="2/2to3/2">
            <lane id="2/2to3/2_0" sampledSeconds="0.90" traveltime="665.65" density="0.02" occupancy="0.01" waitingTime="0.00" speed="1.18" departed="1" arrived="0" entered="0" left="0" laneChangedFrom="0" laneChangedTo="0"/>
            <lane id="2/2to3/2_1" sampledSeconds="0.00" departed="0" arrived="0" entered="0" left="0" laneChangedFrom="0" laneChangedTo="0"/>
        </edge>
        <edge id="2/3to1/3">
            <lane id="2/3to1/3_0" sampledSeconds="155.70" traveltime="72.36" density="3.52" occupancy="1.76" waitingTime="0.00" speed="10.83" departed="5" arrived="0" entered="0" left="0" laneChangedFrom="0" laneChangedTo="0"/>
            <lane id="2/3to1/3_1" sampledSeconds="0.00" departed="0" arrived="0" entered="0" left="0" laneChangedFrom="0" laneChangedTo="0"/>
        </edge>
        <edge id="2/3to2/2">
            <lane id="2/3to2/2_0" sampledSeconds="206.70" traveltime="71.24" density="4.67" occupancy="2.33" waitingTime="0.00" speed="11.00" departed="6" arrived="0" entered="0" left="0" laneChangedFrom="0" laneChangedTo="0"/>
            <lane id="2/3to2/2_1" sampledSeconds="0.00" departed="0" arrived="0" entered="0" left="0" laneChangedFrom="0" laneChangedTo="0"/>
        </edge>
        <edge id="2/3to3/3">
            <lane id="2/3to3/3_0" sampledSeconds="45.30" traveltime="78.59" density="1.02" occupancy="0.51" waitingTime="0.00" speed="9.99" departed="3" arrived="0" entered="0" left="0" laneChangedFrom="0" laneChangedTo="0"/>
            <lane id="2/3to3/3_1" sampledSeconds="0.00" departed="0" arrived="0" entered="0" left="0" laneChangedFrom="0" laneChangedTo="0"/>
        </edge>
        <edge id="3/0to2/0">
            <lane id="3/0to2/0_0" sampledSeconds="135.10" traveltime="75.34" density="3.04" occupancy="1.52" waitingTime="0.00" speed="10.42" departed="6" arrived="0" entered="0" left="0" laneChangedFrom="0" laneChangedTo="0"/>
            <lane id="3/0to2/0_1" sampledSeconds="0.00" departed="0" arrived="0" entered="0" left="0" laneChangedFrom="0" laneChangedTo="0"/>
        </edge>
        <edge id="3/0to3/1">
            <lane id="3/0to3/1_0" sampledSeconds="152.60" traveltime="72.36" density="3.44" occupancy="1.72" waitingTime="0.00" speed="10.85" departed="5" arrived="0" entered="0" left="0" laneChangedFrom="0" laneChangedTo="0"/>
            <lane id="3/0to3/1_1" sampledSeconds="0.00" departed="0" arrived="0" entered="0" left="0" laneChangedFrom="0" laneChangedTo="0"/>
        </edge>
        <edge id="3/1to2/1">
            <lane id="3/1to2/1_0" sampledSeconds="99.80" traveltime="72.00" density="2.25" occupancy="1.13" waitingTime="0.00" speed="10.89" departed="3" arrived="0" entered="0" left="0" laneChangedFrom="2" laneChangedTo="0"/>
            <lane id="3/1to2/1_1" sampledSeconds="10.90" traveltime="65.71" density="0.25" occupancy="0.12" waitingTime="0.00" speed="11.93" departed="0" arrived="0" entered="0" left="0" laneChangedFrom="0" laneChangedTo="2"/>
        </edge>
        <edge id="3/1to3/0">
            <lane id="3/1to3/0_0" sampledSeconds="73.50" traveltime="77.99" density="1.66" occupancy="0.83" waitingTime="0.00" speed="10.07" departed="4" arrived="0" entered="0" left="0" laneChangedFrom="0" laneChangedTo="0"/>
            <lane id="3/1to3/0_1" sampledSeconds="0.00" departed="0" arrived="0" entered="0" left="0" laneChangedFrom="0" laneChangedTo="0"/>
        </edge>
        <edge id="3/1to3/2">
            <lane id="3/1to3/2_0" sampledSeconds="144.30" traveltime="71.35" density="3.26" occupancy="1.63" waitingTime="0.00" speed="10.99" departed="4" arrived="0" entered="0" left="0" laneChangedFrom="2" laneChangedTo="0"/>
            <lane id="3/1to3/2_1" sampledSeconds="2.10" traveltime="65.73" density="0.05" occupancy="0.02" waitingTime="0.00" speed="11.93" departed="0" arrived="0" entered="0" left="0" laneChangedFrom="0" laneChangedTo="2"/>
        </edge>
        <edge id="3/2to2/2">
            <lane id="3/2to2/2_0" sampledSeconds="132.90" traveltime="71.88" density="3.00" occupancy="1.50" waitingTime="0.00" speed="10.91" departed="4" arrived="0" entered="0" left="0" laneChangedFrom="1" laneChangedTo="0"/>
            <lane id="3/2to2/2_1" sampledSeconds="8.40" traveltime="65.67" density="0.19" occupancy="0.09" waitingTime="0.00" speed="11.94" departed="0" arrived="0" entered="0" left="0" laneChangedFrom="0" laneChangedTo="1"/>
        </edge>
        <edge id="3/2to3/1">
            <lane id="3/2to3/1_0" sampledSeconds="90.30" traveltime="75.09" density="2.04" occupancy="1.02" waitingTime="0.00" speed="10.44" departed="4" arrived="0" entered="0" left="0" laneChangedFrom="0" laneChangedTo="0"/>
            <lane id="3/2to3/1_1" sampledSeconds="0.00" departed="0" arrived="0" entered="0" left="0" laneChangedFrom="0" laneChangedTo="0"/>
        </edge>
        <edge id="3/2to3/3">
            <lane id="3/2to3/3_0" sampledSeconds="75.90" traveltime="77.55" density="1.71" occupancy="0.86" waitingTime="0.00" speed="10.13" departed="4" arrived="0" entered="0" left="0" laneChangedFrom="0" laneChangedTo="0"/>
            <lane id="3/2to3/3_1" sampledSeconds="0.00" departed="0" arrived="0" entered="0" left="0" laneChangedFrom="0" laneChangedTo="0"/>
        </edge>
        <edge id="3/3to2/3">
            <lane id="3/3to2/3_0" sampledSeconds="77.10" traveltime="71.04" density="1.74" occupancy="0.87" waitingTime="0.00" speed="11.06" departed="2" arrived="0" entered="0" left="0" laneChangedFrom="0" laneChangedTo="0"/>
            <lane id="3/3to2/3_1" sampledSeconds="0.00" departed="0" arrived="0" entered="0" left="0" laneChangedFrom="0" laneChangedTo="0"/>
        </edge>
        <edge id="3/3to3/2">
            <lane id="3/3to3/2_0" sampledSeconds="139.50" traveltime="74.02" density="3.14" occupancy="1.57" waitingTime="0.00" speed="10.61" departed="6" arrived="0" entered="0" left="0" laneChangedFrom="0" laneChangedTo="0"/>
            <lane id="3/3to3/2_1" sampledSeconds="0.00" departed="0" arrived="0" entered="0" left="0" laneChangedFrom="0" laneChangedTo="0"/>
        </edge>
    </interval>
</meandata>
